LAMMPS Single Molecule Representation of DOPC

       12 atoms
       11 bonds
       10 angles

        6 atom types
        5 bond types
        6 angle types

    -34.02342     34.02342      xlo xhi
    -34.02342     34.02342      ylo yhi
    -31.76297     31.76297      zlo zhi

Atoms

      1    5     0.0000    0.0000    15.0000      1   0.00  -0.05778   0.37513  -0.17127  4.6  1.2
      2    6     0.0000    0.0000    12.0000      1   0.00   0.00000   0.00000   0.00000  4.5  0.9
      3    6     0.0000    0.0000     9.0000      1   0.00   0.00000   0.00000   0.00000  4.5  0.9
      4    6     0.0000    0.0000     6.0000      1   0.00   0.00000   0.00000   0.00000  4.5  0.9
      5    6     0.0000    0.0000     3.0000      1   0.00   0.00000   0.00000   0.00000  4.5  0.9
      6    6     0.0000    0.0000     0.0000      1   0.00   0.00000   0.00000   0.00000  4.5  0.9
      7    5     3.0000    3.0000    15.0000      1   0.00  -0.33789  -0.12748   0.20729  4.6  1.2
      8    6     3.0000    3.0000    12.0000      1   0.00   0.00000   0.00000   0.00000  4.5  0.9
      9    6     3.0000    3.0000     9.0000      1   0.00   0.00000   0.00000   0.00000  4.5  0.9
     10    6     3.0000    3.0000     6.0000      1   0.00   0.00000   0.00000   0.00000  4.5  0.9
     11    6     3.0000    3.0000     3.0000      1   0.00   0.00000   0.00000   0.00000  4.5  0.9
     12    6     3.0000    3.0000     0.0000      1   0.00   0.00000   0.00000   0.00000  4.5  0.9
  
Bonds

      1    1       1       2
      2    1       2       3
      3    1       3       4
      4    1       4       5
      5    1       5       6 
      6    1       7       8
      7    1       8       9
      8    1       9      10
      9    1      10      11
     10    1      11      12   
     11    1       1       7
     
Angles

      1    1       1       2       3
      2    1       2       3       4
      3    1       3       4       5
      4    1       4       5       6
      5    1       7       8       9
      6    1       8       9      10
      7    1       9      10      11
      8    1      10      11      12
      9    6       1       7       8
     10    6       2       1       7






