LAMMPS Bilayer comprising 500 created from a single molecule
        8000 atoms
        7000 bonds
        8000 angles
           0 dihedrals
           0 impropers

           6 atom types
           5 bond types
           6 angle types
           0 dihedral types
           0 improper types

-80.000  80.000  xlo xhi
-80.000  80.000  ylo yhi
-90.000  90.000  zlo zhi

Atoms

      1       2     62.627    128.304    149.128       1       0      0.000      0.000      0.000   5.200   1.222 
      2       3     58.227    126.904    146.128       1       0      0.000      0.000      0.000   5.200   1.222 
      3       4     61.027    129.704    143.128       1       0     -0.192      0.195      0.190   4.600   1.217 
      4       5     59.627    128.304    140.128       1       0     -0.058      0.375     -0.171   4.600   1.217 
      5       6     59.627    128.304    137.128       1       0      0.000      0.000      0.000   4.500   0.880 
      6       6     59.627    128.304    134.128       1       0      0.000      0.000      0.000   4.500   0.880 
      7       6     59.627    128.304    131.128       1       0      0.000      0.000      0.000   4.500   0.880 
      8       6     59.627    128.304    128.128       1       0      0.000      0.000      0.000   4.500   0.880 
      9       6     59.627    128.304    125.128       1       0      0.000      0.000      0.000   4.500   0.880 
     10       5     62.627    131.304    140.128       1       0     -0.338     -0.127      0.207   4.600   1.217 
     11       6     62.627    131.304    137.128       1       0      0.000      0.000      0.000   4.500   0.880 
     12       6     62.627    131.304    134.128       1       0      0.000      0.000      0.000   4.500   0.880 
     13       6     62.627    131.304    131.128       1       0      0.000      0.000      0.000   4.500   0.880 
     14       6     62.627    131.304    128.128       1       0      0.000      0.000      0.000   4.500   0.880 
     15       6     62.627    131.304    125.128       1       0      0.000      0.000      0.000   4.500   0.880 
     16       2    104.381    143.265     80.386       2       0      0.000      0.000      0.000   5.200   1.222 
     17       3     99.981    141.865     77.386       2       0      0.000      0.000      0.000   5.200   1.222 
     18       4    102.781    144.665     74.386       2       0     -0.192      0.195      0.190   4.600   1.217 
     19       5    101.381    143.265     71.386       2       0     -0.058      0.375     -0.171   4.600   1.217 
     20       6    101.381    143.265     68.386       2       0      0.000      0.000      0.000   4.500   0.880 
     21       6    101.381    143.265     65.386       2       0      0.000      0.000      0.000   4.500   0.880 
     22       6    101.381    143.265     62.386       2       0      0.000      0.000      0.000   4.500   0.880 
     23       6    101.381    143.265     59.386       2       0      0.000      0.000      0.000   4.500   0.880 
     24       6    101.381    143.265     56.386       2       0      0.000      0.000      0.000   4.500   0.880 
     25       5    104.381    146.265     71.386       2       0     -0.338     -0.127      0.207   4.600   1.217 
     26       6    104.381    146.265     68.386       2       0      0.000      0.000      0.000   4.500   0.880 
     27       6    104.381    146.265     65.386       2       0      0.000      0.000      0.000   4.500   0.880 
     28       6    104.381    146.265     62.386       2       0      0.000      0.000      0.000   4.500   0.880 
     29       6    104.381    146.265     59.386       2       0      0.000      0.000      0.000   4.500   0.880 
     30       6    104.381    146.265     56.386       2       0      0.000      0.000      0.000   4.500   0.880 
     31       2    153.269     41.429    147.472       3       0      0.000      0.000      0.000   5.200   1.222 
     32       3    148.869     40.029    144.472       3       0      0.000      0.000      0.000   5.200   1.222 
     33       4    151.669     42.829    141.472       3       0     -0.192      0.195      0.190   4.600   1.217 
     34       5    150.269     41.429    138.472       3       0     -0.058      0.375     -0.171   4.600   1.217 
     35       6    150.269     41.429    135.472       3       0      0.000      0.000      0.000   4.500   0.880 
     36       6    150.269     41.429    132.472       3       0      0.000      0.000      0.000   4.500   0.880 
     37       6    150.269     41.429    129.472       3       0      0.000      0.000      0.000   4.500   0.880 
     38       6    150.269     41.429    126.472       3       0      0.000      0.000      0.000   4.500   0.880 
     39       6    150.269     41.429    123.472       3       0      0.000      0.000      0.000   4.500   0.880 
     40       5    153.269     44.429    138.472       3       0     -0.338     -0.127      0.207   4.600   1.217 
     41       6    153.269     44.429    135.472       3       0      0.000      0.000      0.000   4.500   0.880 
     42       6    153.269     44.429    132.472       3       0      0.000      0.000      0.000   4.500   0.880 
     43       6    153.269     44.429    129.472       3       0      0.000      0.000      0.000   4.500   0.880 
     44       6    153.269     44.429    126.472       3       0      0.000      0.000      0.000   4.500   0.880 
     45       6    153.269     44.429    123.472       3       0      0.000      0.000      0.000   4.500   0.880 
     46       2     98.359      2.334    150.407       4       0      0.000      0.000      0.000   5.200   1.222 
     47       3     93.959      0.934    147.407       4       0      0.000      0.000      0.000   5.200   1.222 
     48       4     96.759      3.734    144.407       4       0     -0.192      0.195      0.190   4.600   1.217 
     49       5     95.359      2.334    141.407       4       0     -0.058      0.375     -0.171   4.600   1.217 
     50       6     95.359      2.334    138.407       4       0      0.000      0.000      0.000   4.500   0.880 
     51       6     95.359      2.334    135.407       4       0      0.000      0.000      0.000   4.500   0.880 
     52       6     95.359      2.334    132.407       4       0      0.000      0.000      0.000   4.500   0.880 
     53       6     95.359      2.334    129.407       4       0      0.000      0.000      0.000   4.500   0.880 
     54       6     95.359      2.334    126.407       4       0      0.000      0.000      0.000   4.500   0.880 
     55       5     98.359      5.334    141.407       4       0     -0.338     -0.127      0.207   4.600   1.217 
     56       6     98.359      5.334    138.407       4       0      0.000      0.000      0.000   4.500   0.880 
     57       6     98.359      5.334    135.407       4       0      0.000      0.000      0.000   4.500   0.880 
     58       6     98.359      5.334    132.407       4       0      0.000      0.000      0.000   4.500   0.880 
     59       6     98.359      5.334    129.407       4       0      0.000      0.000      0.000   4.500   0.880 
     60       6     98.359      5.334    126.407       4       0      0.000      0.000      0.000   4.500   0.880 
     61       2     85.941     33.212     66.705       5       0      0.000      0.000      0.000   5.200   1.222 
     62       3     81.541     31.812     63.705       5       0      0.000      0.000      0.000   5.200   1.222 
     63       4     84.341     34.612     60.705       5       0     -0.192      0.195      0.190   4.600   1.217 
     64       5     82.941     33.212     57.705       5       0     -0.058      0.375     -0.171   4.600   1.217 
     65       6     82.941     33.212     54.705       5       0      0.000      0.000      0.000   4.500   0.880 
     66       6     82.941     33.212     51.705       5       0      0.000      0.000      0.000   4.500   0.880 
     67       6     82.941     33.212     48.705       5       0      0.000      0.000      0.000   4.500   0.880 
     68       6     82.941     33.212     45.705       5       0      0.000      0.000      0.000   4.500   0.880 
     69       6     82.941     33.212     42.705       5       0      0.000      0.000      0.000   4.500   0.880 
     70       5     85.941     36.212     57.705       5       0     -0.338     -0.127      0.207   4.600   1.217 
     71       6     85.941     36.212     54.705       5       0      0.000      0.000      0.000   4.500   0.880 
     72       6     85.941     36.212     51.705       5       0      0.000      0.000      0.000   4.500   0.880 
     73       6     85.941     36.212     48.705       5       0      0.000      0.000      0.000   4.500   0.880 
     74       6     85.941     36.212     45.705       5       0      0.000      0.000      0.000   4.500   0.880 
     75       6     85.941     36.212     42.705       5       0      0.000      0.000      0.000   4.500   0.880 
     76       2     70.881     27.707     14.292       6       0      0.000      0.000      0.000   5.200   1.222 
     77       3     66.481     26.307     11.292       6       0      0.000      0.000      0.000   5.200   1.222 
     78       4     69.281     29.107      8.292       6       0     -0.192      0.195      0.190   4.600   1.217 
     79       5     67.881     27.707      5.292       6       0     -0.058      0.375     -0.171   4.600   1.217 
     80       6     67.881     27.707      2.292       6       0      0.000      0.000      0.000   4.500   0.880 
     81       6     67.881     27.707    179.292       6       0      0.000      0.000      0.000   4.500   0.880 
     82       6     67.881     27.707    176.292       6       0      0.000      0.000      0.000   4.500   0.880 
     83       6     67.881     27.707    173.292       6       0      0.000      0.000      0.000   4.500   0.880 
     84       6     67.881     27.707    170.292       6       0      0.000      0.000      0.000   4.500   0.880 
     85       5     70.881     30.707      5.292       6       0     -0.338     -0.127      0.207   4.600   1.217 
     86       6     70.881     30.707      2.292       6       0      0.000      0.000      0.000   4.500   0.880 
     87       6     70.881     30.707    179.292       6       0      0.000      0.000      0.000   4.500   0.880 
     88       6     70.881     30.707    176.292       6       0      0.000      0.000      0.000   4.500   0.880 
     89       6     70.881     30.707    173.292       6       0      0.000      0.000      0.000   4.500   0.880 
     90       6     70.881     30.707    170.292       6       0      0.000      0.000      0.000   4.500   0.880 
     91       2     83.931    118.548     37.465       7       0      0.000      0.000      0.000   5.200   1.222 
     92       3     79.531    117.148     34.465       7       0      0.000      0.000      0.000   5.200   1.222 
     93       4     82.331    119.948     31.465       7       0     -0.192      0.195      0.190   4.600   1.217 
     94       5     80.931    118.548     28.465       7       0     -0.058      0.375     -0.171   4.600   1.217 
     95       6     80.931    118.548     25.465       7       0      0.000      0.000      0.000   4.500   0.880 
     96       6     80.931    118.548     22.465       7       0      0.000      0.000      0.000   4.500   0.880 
     97       6     80.931    118.548     19.465       7       0      0.000      0.000      0.000   4.500   0.880 
     98       6     80.931    118.548     16.465       7       0      0.000      0.000      0.000   4.500   0.880 
     99       6     80.931    118.548     13.465       7       0      0.000      0.000      0.000   4.500   0.880 
    100       5     83.931    121.548     28.465       7       0     -0.338     -0.127      0.207   4.600   1.217 
    101       6     83.931    121.548     25.465       7       0      0.000      0.000      0.000   4.500   0.880 
    102       6     83.931    121.548     22.465       7       0      0.000      0.000      0.000   4.500   0.880 
    103       6     83.931    121.548     19.465       7       0      0.000      0.000      0.000   4.500   0.880 
    104       6     83.931    121.548     16.465       7       0      0.000      0.000      0.000   4.500   0.880 
    105       6     83.931    121.548     13.465       7       0      0.000      0.000      0.000   4.500   0.880 
    106       2     93.736     18.560    174.578       8       0      0.000      0.000      0.000   5.200   1.222 
    107       3     89.336     17.160    171.578       8       0      0.000      0.000      0.000   5.200   1.222 
    108       4     92.136     19.960    168.578       8       0     -0.192      0.195      0.190   4.600   1.217 
    109       5     90.736     18.560    165.578       8       0     -0.058      0.375     -0.171   4.600   1.217 
    110       6     90.736     18.560    162.578       8       0      0.000      0.000      0.000   4.500   0.880 
    111       6     90.736     18.560    159.578       8       0      0.000      0.000      0.000   4.500   0.880 
    112       6     90.736     18.560    156.578       8       0      0.000      0.000      0.000   4.500   0.880 
    113       6     90.736     18.560    153.578       8       0      0.000      0.000      0.000   4.500   0.880 
    114       6     90.736     18.560    150.578       8       0      0.000      0.000      0.000   4.500   0.880 
    115       5     93.736     21.560    165.578       8       0     -0.338     -0.127      0.207   4.600   1.217 
    116       6     93.736     21.560    162.578       8       0      0.000      0.000      0.000   4.500   0.880 
    117       6     93.736     21.560    159.578       8       0      0.000      0.000      0.000   4.500   0.880 
    118       6     93.736     21.560    156.578       8       0      0.000      0.000      0.000   4.500   0.880 
    119       6     93.736     21.560    153.578       8       0      0.000      0.000      0.000   4.500   0.880 
    120       6     93.736     21.560    150.578       8       0      0.000      0.000      0.000   4.500   0.880 
    121       2     54.212     45.918    137.225       9       0      0.000      0.000      0.000   5.200   1.222 
    122       3     49.812     44.518    134.225       9       0      0.000      0.000      0.000   5.200   1.222 
    123       4     52.612     47.318    131.225       9       0     -0.192      0.195      0.190   4.600   1.217 
    124       5     51.212     45.918    128.225       9       0     -0.058      0.375     -0.171   4.600   1.217 
    125       6     51.212     45.918    125.225       9       0      0.000      0.000      0.000   4.500   0.880 
    126       6     51.212     45.918    122.225       9       0      0.000      0.000      0.000   4.500   0.880 
    127       6     51.212     45.918    119.225       9       0      0.000      0.000      0.000   4.500   0.880 
    128       6     51.212     45.918    116.225       9       0      0.000      0.000      0.000   4.500   0.880 
    129       6     51.212     45.918    113.225       9       0      0.000      0.000      0.000   4.500   0.880 
    130       5     54.212     48.918    128.225       9       0     -0.338     -0.127      0.207   4.600   1.217 
    131       6     54.212     48.918    125.225       9       0      0.000      0.000      0.000   4.500   0.880 
    132       6     54.212     48.918    122.225       9       0      0.000      0.000      0.000   4.500   0.880 
    133       6     54.212     48.918    119.225       9       0      0.000      0.000      0.000   4.500   0.880 
    134       6     54.212     48.918    116.225       9       0      0.000      0.000      0.000   4.500   0.880 
    135       6     54.212     48.918    113.225       9       0      0.000      0.000      0.000   4.500   0.880 
    136       2     63.418    115.256    158.565      10       0      0.000      0.000      0.000   5.200   1.222 
    137       3     59.018    113.856    155.565      10       0      0.000      0.000      0.000   5.200   1.222 
    138       4     61.818    116.656    152.565      10       0     -0.192      0.195      0.190   4.600   1.217 
    139       5     60.418    115.256    149.565      10       0     -0.058      0.375     -0.171   4.600   1.217 
    140       6     60.418    115.256    146.565      10       0      0.000      0.000      0.000   4.500   0.880 
    141       6     60.418    115.256    143.565      10       0      0.000      0.000      0.000   4.500   0.880 
    142       6     60.418    115.256    140.565      10       0      0.000      0.000      0.000   4.500   0.880 
    143       6     60.418    115.256    137.565      10       0      0.000      0.000      0.000   4.500   0.880 
    144       6     60.418    115.256    134.565      10       0      0.000      0.000      0.000   4.500   0.880 
    145       5     63.418    118.256    149.565      10       0     -0.338     -0.127      0.207   4.600   1.217 
    146       6     63.418    118.256    146.565      10       0      0.000      0.000      0.000   4.500   0.880 
    147       6     63.418    118.256    143.565      10       0      0.000      0.000      0.000   4.500   0.880 
    148       6     63.418    118.256    140.565      10       0      0.000      0.000      0.000   4.500   0.880 
    149       6     63.418    118.256    137.565      10       0      0.000      0.000      0.000   4.500   0.880 
    150       6     63.418    118.256    134.565      10       0      0.000      0.000      0.000   4.500   0.880 
    151       2     11.286    128.363    138.828      11       0      0.000      0.000      0.000   5.200   1.222 
    152       3      6.886    126.963    135.828      11       0      0.000      0.000      0.000   5.200   1.222 
    153       4      9.686    129.763    132.828      11       0     -0.192      0.195      0.190   4.600   1.217 
    154       5      8.286    128.363    129.828      11       0     -0.058      0.375     -0.171   4.600   1.217 
    155       6      8.286    128.363    126.828      11       0      0.000      0.000      0.000   4.500   0.880 
    156       6      8.286    128.363    123.828      11       0      0.000      0.000      0.000   4.500   0.880 
    157       6      8.286    128.363    120.828      11       0      0.000      0.000      0.000   4.500   0.880 
    158       6      8.286    128.363    117.828      11       0      0.000      0.000      0.000   4.500   0.880 
    159       6      8.286    128.363    114.828      11       0      0.000      0.000      0.000   4.500   0.880 
    160       5     11.286    131.363    129.828      11       0     -0.338     -0.127      0.207   4.600   1.217 
    161       6     11.286    131.363    126.828      11       0      0.000      0.000      0.000   4.500   0.880 
    162       6     11.286    131.363    123.828      11       0      0.000      0.000      0.000   4.500   0.880 
    163       6     11.286    131.363    120.828      11       0      0.000      0.000      0.000   4.500   0.880 
    164       6     11.286    131.363    117.828      11       0      0.000      0.000      0.000   4.500   0.880 
    165       6     11.286    131.363    114.828      11       0      0.000      0.000      0.000   4.500   0.880 
    166       2     43.217    141.308    134.053      12       0      0.000      0.000      0.000   5.200   1.222 
    167       3     38.817    139.908    131.053      12       0      0.000      0.000      0.000   5.200   1.222 
    168       4     41.617    142.708    128.053      12       0     -0.192      0.195      0.190   4.600   1.217 
    169       5     40.217    141.308    125.053      12       0     -0.058      0.375     -0.171   4.600   1.217 
    170       6     40.217    141.308    122.053      12       0      0.000      0.000      0.000   4.500   0.880 
    171       6     40.217    141.308    119.053      12       0      0.000      0.000      0.000   4.500   0.880 
    172       6     40.217    141.308    116.053      12       0      0.000      0.000      0.000   4.500   0.880 
    173       6     40.217    141.308    113.053      12       0      0.000      0.000      0.000   4.500   0.880 
    174       6     40.217    141.308    110.053      12       0      0.000      0.000      0.000   4.500   0.880 
    175       5     43.217    144.308    125.053      12       0     -0.338     -0.127      0.207   4.600   1.217 
    176       6     43.217    144.308    122.053      12       0      0.000      0.000      0.000   4.500   0.880 
    177       6     43.217    144.308    119.053      12       0      0.000      0.000      0.000   4.500   0.880 
    178       6     43.217    144.308    116.053      12       0      0.000      0.000      0.000   4.500   0.880 
    179       6     43.217    144.308    113.053      12       0      0.000      0.000      0.000   4.500   0.880 
    180       6     43.217    144.308    110.053      12       0      0.000      0.000      0.000   4.500   0.880 
    181       2    106.542    120.238    150.281      13       0      0.000      0.000      0.000   5.200   1.222 
    182       3    102.142    118.838    147.281      13       0      0.000      0.000      0.000   5.200   1.222 
    183       4    104.942    121.638    144.281      13       0     -0.192      0.195      0.190   4.600   1.217 
    184       5    103.542    120.238    141.281      13       0     -0.058      0.375     -0.171   4.600   1.217 
    185       6    103.542    120.238    138.281      13       0      0.000      0.000      0.000   4.500   0.880 
    186       6    103.542    120.238    135.281      13       0      0.000      0.000      0.000   4.500   0.880 
    187       6    103.542    120.238    132.281      13       0      0.000      0.000      0.000   4.500   0.880 
    188       6    103.542    120.238    129.281      13       0      0.000      0.000      0.000   4.500   0.880 
    189       6    103.542    120.238    126.281      13       0      0.000      0.000      0.000   4.500   0.880 
    190       5    106.542    123.238    141.281      13       0     -0.338     -0.127      0.207   4.600   1.217 
    191       6    106.542    123.238    138.281      13       0      0.000      0.000      0.000   4.500   0.880 
    192       6    106.542    123.238    135.281      13       0      0.000      0.000      0.000   4.500   0.880 
    193       6    106.542    123.238    132.281      13       0      0.000      0.000      0.000   4.500   0.880 
    194       6    106.542    123.238    129.281      13       0      0.000      0.000      0.000   4.500   0.880 
    195       6    106.542    123.238    126.281      13       0      0.000      0.000      0.000   4.500   0.880 
    196       2     26.535     87.146     16.096      14       0      0.000      0.000      0.000   5.200   1.222 
    197       3     22.135     85.746     13.096      14       0      0.000      0.000      0.000   5.200   1.222 
    198       4     24.935     88.546     10.096      14       0     -0.192      0.195      0.190   4.600   1.217 
    199       5     23.535     87.146      7.096      14       0     -0.058      0.375     -0.171   4.600   1.217 
    200       6     23.535     87.146      4.096      14       0      0.000      0.000      0.000   4.500   0.880 
    201       6     23.535     87.146      1.096      14       0      0.000      0.000      0.000   4.500   0.880 
    202       6     23.535     87.146    178.096      14       0      0.000      0.000      0.000   4.500   0.880 
    203       6     23.535     87.146    175.096      14       0      0.000      0.000      0.000   4.500   0.880 
    204       6     23.535     87.146    172.096      14       0      0.000      0.000      0.000   4.500   0.880 
    205       5     26.535     90.146      7.096      14       0     -0.338     -0.127      0.207   4.600   1.217 
    206       6     26.535     90.146      4.096      14       0      0.000      0.000      0.000   4.500   0.880 
    207       6     26.535     90.146      1.096      14       0      0.000      0.000      0.000   4.500   0.880 
    208       6     26.535     90.146    178.096      14       0      0.000      0.000      0.000   4.500   0.880 
    209       6     26.535     90.146    175.096      14       0      0.000      0.000      0.000   4.500   0.880 
    210       6     26.535     90.146    172.096      14       0      0.000      0.000      0.000   4.500   0.880 
    211       2    118.824     70.938    162.518      15       0      0.000      0.000      0.000   5.200   1.222 
    212       3    114.424     69.538    159.518      15       0      0.000      0.000      0.000   5.200   1.222 
    213       4    117.224     72.338    156.518      15       0     -0.192      0.195      0.190   4.600   1.217 
    214       5    115.824     70.938    153.518      15       0     -0.058      0.375     -0.171   4.600   1.217 
    215       6    115.824     70.938    150.518      15       0      0.000      0.000      0.000   4.500   0.880 
    216       6    115.824     70.938    147.518      15       0      0.000      0.000      0.000   4.500   0.880 
    217       6    115.824     70.938    144.518      15       0      0.000      0.000      0.000   4.500   0.880 
    218       6    115.824     70.938    141.518      15       0      0.000      0.000      0.000   4.500   0.880 
    219       6    115.824     70.938    138.518      15       0      0.000      0.000      0.000   4.500   0.880 
    220       5    118.824     73.938    153.518      15       0     -0.338     -0.127      0.207   4.600   1.217 
    221       6    118.824     73.938    150.518      15       0      0.000      0.000      0.000   4.500   0.880 
    222       6    118.824     73.938    147.518      15       0      0.000      0.000      0.000   4.500   0.880 
    223       6    118.824     73.938    144.518      15       0      0.000      0.000      0.000   4.500   0.880 
    224       6    118.824     73.938    141.518      15       0      0.000      0.000      0.000   4.500   0.880 
    225       6    118.824     73.938    138.518      15       0      0.000      0.000      0.000   4.500   0.880 
    226       2     66.738     10.104     79.393      16       0      0.000      0.000      0.000   5.200   1.222 
    227       3     62.338      8.704     76.393      16       0      0.000      0.000      0.000   5.200   1.222 
    228       4     65.138     11.504     73.393      16       0     -0.192      0.195      0.190   4.600   1.217 
    229       5     63.738     10.104     70.393      16       0     -0.058      0.375     -0.171   4.600   1.217 
    230       6     63.738     10.104     67.393      16       0      0.000      0.000      0.000   4.500   0.880 
    231       6     63.738     10.104     64.393      16       0      0.000      0.000      0.000   4.500   0.880 
    232       6     63.738     10.104     61.393      16       0      0.000      0.000      0.000   4.500   0.880 
    233       6     63.738     10.104     58.393      16       0      0.000      0.000      0.000   4.500   0.880 
    234       6     63.738     10.104     55.393      16       0      0.000      0.000      0.000   4.500   0.880 
    235       5     66.738     13.104     70.393      16       0     -0.338     -0.127      0.207   4.600   1.217 
    236       6     66.738     13.104     67.393      16       0      0.000      0.000      0.000   4.500   0.880 
    237       6     66.738     13.104     64.393      16       0      0.000      0.000      0.000   4.500   0.880 
    238       6     66.738     13.104     61.393      16       0      0.000      0.000      0.000   4.500   0.880 
    239       6     66.738     13.104     58.393      16       0      0.000      0.000      0.000   4.500   0.880 
    240       6     66.738     13.104     55.393      16       0      0.000      0.000      0.000   4.500   0.880 
    241       2     22.167     56.898    162.175      17       0      0.000      0.000      0.000   5.200   1.222 
    242       3     17.767     55.498    159.175      17       0      0.000      0.000      0.000   5.200   1.222 
    243       4     20.567     58.298    156.175      17       0     -0.192      0.195      0.190   4.600   1.217 
    244       5     19.167     56.898    153.175      17       0     -0.058      0.375     -0.171   4.600   1.217 
    245       6     19.167     56.898    150.175      17       0      0.000      0.000      0.000   4.500   0.880 
    246       6     19.167     56.898    147.175      17       0      0.000      0.000      0.000   4.500   0.880 
    247       6     19.167     56.898    144.175      17       0      0.000      0.000      0.000   4.500   0.880 
    248       6     19.167     56.898    141.175      17       0      0.000      0.000      0.000   4.500   0.880 
    249       6     19.167     56.898    138.175      17       0      0.000      0.000      0.000   4.500   0.880 
    250       5     22.167     59.898    153.175      17       0     -0.338     -0.127      0.207   4.600   1.217 
    251       6     22.167     59.898    150.175      17       0      0.000      0.000      0.000   4.500   0.880 
    252       6     22.167     59.898    147.175      17       0      0.000      0.000      0.000   4.500   0.880 
    253       6     22.167     59.898    144.175      17       0      0.000      0.000      0.000   4.500   0.880 
    254       6     22.167     59.898    141.175      17       0      0.000      0.000      0.000   4.500   0.880 
    255       6     22.167     59.898    138.175      17       0      0.000      0.000      0.000   4.500   0.880 
    256       2     43.506     77.702     64.092      18       0      0.000      0.000      0.000   5.200   1.222 
    257       3     39.106     76.302     61.092      18       0      0.000      0.000      0.000   5.200   1.222 