LAMMPS Single Molecule Representation of DOPC

       15 atoms
       14 bonds
       16 angles

        6 atom types
        5 bond types
        5 angle types

    -34.02342     34.02342      xlo xhi
    -34.02342     34.02342      ylo yhi
    -31.76297     31.76297      zlo zhi

Atoms

      1    2     3.0000    0.0000    24.0000      1   0.70   0.00000   0.00000   0.00000  5.2  1.2
      2    3   	-1.4000   -1.4000    21.0000      1  -0.70   0.00000   0.00000   0.00000  5.2  1.2
      3    4     1.4000    1.4000    18.0000      1   0.00  -0.19226   0.19455   0.19015  4.6  1.2
      4    5     0.0000    0.0000    15.0000      1   0.00  -0.05778   0.37513  -0.17127  4.6  1.2
      5    6     0.0000    0.0000    12.0000      1   0.00   0.00000   0.00000   0.00000  4.5  0.9
      6    6     0.0000    0.0000     9.0000      1   0.00   0.00000   0.00000   0.00000  4.5  0.9
      7    6     0.0000    0.0000     6.0000      1   0.00   0.00000   0.00000   0.00000  4.5  0.9
      8    6     0.0000    0.0000     3.0000      1   0.00   0.00000   0.00000   0.00000  4.5  0.9
      9    6     0.0000    0.0000     0.0000      1   0.00   0.00000   0.00000   0.00000  4.5  0.9
     10    5     3.0000    3.0000    15.0000      1   0.00  -0.33789  -0.12748   0.20729  4.6  1.2
     11    6     3.0000    3.0000    12.0000      1   0.00   0.00000   0.00000   0.00000  4.5  0.9
     12    6     3.0000    3.0000     9.0000      1   0.00   0.00000   0.00000   0.00000  4.5  0.9
     13    6     3.0000    3.0000     6.0000      1   0.00   0.00000   0.00000   0.00000  4.5  0.9
     14    6     3.0000    3.0000     3.0000      1   0.00   0.00000   0.00000   0.00000  4.5  0.9
     15    6     3.0000    3.0000     0.0000      1   0.00   0.00000   0.00000   0.00000  4.5  0.9
  
Bonds

      1    1       1       2
      2    2       2       3
      3    3       3       4
      4    3       3      10
      5    4       4       5
      6    5       5       6
      7    5       6       7
      8    5       7       8
      9    5       8       9
     10    4      10      11
     11    5      11      12
     12    5      12      13
     13    5      13      14
     14    5      14      15
     
Angles

      1    1       1       2       3
      2    2       2       3       4
      3    2       2       3      10
      4    5       3       2       2
      5    5       4       5       5
      6    5      10      11      11
      7    3       3       4       5
      8    3       4       5       6
      9    4       5       6       7
     10    3       6       7       8
     11    3       7       8       9
     12    3       3      10      11
     13    3      10      11      12
     14    4      11      12      13
     15    3      12      13      14
     16    3      13      14      15
